36
Lattice="9.289998233647655 -0.0015049812188321391 0.01528206237641277 4.643693870766754 8.046121966275368 0.01528206237641277 3.10469264438299 1.7924976616817432 5.067689814146376" Properties=species:S:1:pos:R:3:forces:R:3 energy=-15955.527138395335 free_energy=-15955.527138395335 pbc="T T T"
Si      -0.00333112      -0.17832646      -0.15249469      -1.94946415      -0.72226504       1.95674603
C        1.32426519       0.82211417       0.49674762       3.97102821       1.65988055      -0.80898398
Si       1.46747352       1.06432899       2.29684374      -1.41286798      -2.48396102       2.30488523
C        2.85323534       1.82667060       3.14869754       3.26963898       0.52015577      -1.03124197
Si       1.52804472       2.78480610      -0.03690941       1.04321457      -3.04948184      -0.10221575
C        3.05153907       3.45967592       0.73570662       1.06185224       1.30600239      -2.93536137
Si       2.93601301       3.75602411       2.48266408       1.83946722      -2.18182992       2.97294833
C        4.61352908       4.56779635       3.17467171      -2.45266324       0.56425816      -0.38545079
Si       2.98227252       5.19485496      -0.18200751       2.46618467       0.61417561       0.74846459
C        4.66660515       5.90045267       0.48715116      -0.20036196       2.47447236      -0.79641926
Si       4.55391521       6.32043025       2.29940801       1.84109010      -0.66050766       1.63499381
C        6.05788238       7.29035245       3.03811521       1.40079871      -1.70991627      -1.62918749
Si       3.10075039       0.05285608      -0.10604583       0.51892369       0.92639984       1.52278264
C        4.70262655       1.14888241       0.66616980      -0.08816236      -5.31183742       0.93337035
Si       4.63715501       0.83068056       2.76642735      -0.76534773       1.37371574      -3.42083424
C        6.22972479       1.86165280       3.08007970      -2.73592064      -1.40546218       2.66909922
Si       4.78799009       2.80875164       0.07865534      -1.81129770       0.58230113       0.74972057
C        6.42309535       3.61385334       0.96519473      -0.42743150      -1.86438841      -4.75688640
Si       5.99832697       3.58970611       2.65551860       1.50432238       0.42792618       0.74685687
C        7.52126026       4.41376400       3.28419688       2.72773091       2.71613549      -0.32521010
Si       6.37751480       5.07627334      -0.05465417      -1.60502323       3.37515114       1.99658759
C        7.79452299       6.25869825       0.42924440       0.68099652      -0.43799591       1.69139353
Si       7.66980973       6.18679172       2.30493704      -0.47185451       1.28389965       2.73847838
C        9.42901606       7.04175270       3.24890768      -3.21621660       0.72047273      -2.51194233
Si       6.34269760       0.17015405      -0.11444509      -1.34317514      -1.43947350       4.61598507
C        7.89498207       0.82428919       0.88205851      -0.84031519      -0.70885186      -4.17122150
Si       7.62561328       0.87336209       2.60801368       3.04412418       0.68616059       1.36113713
C        9.25427394       1.90499608       3.22069055      -0.38884799      -1.49443983      -2.48722889
Si       7.95798928       2.59375385       0.29631411      -0.45118490       0.92208733      -0.03141862
C        9.51789949       3.64732211       0.78703114      -3.75527692      -1.09455333       1.99215166
Si       9.14869981       3.64626154       2.77366028       2.15674675       0.70032016      -1.33882844
C       10.88219657       4.41262844       3.53176637      -2.01114363       2.12065977      -2.23942314
Si       9.45673485       5.29668464       0.13400527      -2.83341533       1.50514179      -2.64118603
C       10.91910381       6.03953220       0.64830529       1.34246012       4.66056697       2.55421538
Si      10.91353757       6.32885633       2.65178764       2.40493354      -2.31170585      -1.31068746
C       12.55388340       7.26255461       3.27013745      -2.51354233      -2.26321279      -0.26608835
36
Lattice="9.289998233647655 -0.0015049812188321391 0.01528206237641277 4.643693870766754 8.046121966275368 0.01528206237641277 3.10469264438299 1.7924976616817432 5.067689814146376" Properties=species:S:1:pos:R:3:forces:R:3 energy=-15955.612816702804 free_energy=-15955.612816702804 pbc="T T T"
Si       0.08637800      -0.06782425      -0.21297812      -3.46041792      -1.14253962       0.75905265
C        1.42759016       0.82636899       0.57068912       1.02563773       1.56498550      -1.58884894
Si       1.13977001       1.00345947       2.33870977       2.50188701      -0.66828576       3.28557545
C        2.87324696       1.80179833       3.00412097      -0.15108085       1.27850007       0.44877937
Si       1.43514807       2.67538549       0.04285412       3.39842888       0.60377704      -2.42179534
C        3.18577685       3.45068259       0.55767099      -1.54542763       0.79336556       0.41536583
Si       3.09206349       3.67116180       2.42769699       1.56289545      -0.03406686       1.16314033
C        4.70318989       4.75950180       3.12046032      -0.40217427      -4.93643657       1.10235945
Si       3.02917712       5.23900632      -0.09412252       1.37017970       0.10471486      -1.91747757
C        4.67970403       6.06948174       0.39469515       0.77586226       1.59292825      -2.14252058
Si       4.71791934       6.24453599       2.11912269      -1.01062969       1.75834917       5.53821792
C        5.95222289       7.34675104       2.98475956       2.69754616      -2.54078034       1.53922536
Si       3.06730372      -0.00805617      -0.04770756      -0.62087462      -1.20227921       2.15115460
C        4.61358779       0.77294024       0.43992113       0.89063888       1.34548734       3.85403222
Si       4.43733369       1.10056368       2.48465942       0.98438413      -3.74170560      -1.64747035
C        5.93380739       1.82082727       3.24032971       1.00308967      -1.05107160      -1.16132256
Si       4.79927143       2.58762277       0.10389339      -0.66839683       0.46070749      -2.11774568
C        6.30179312       3.47922425       0.78622653       0.56690665       1.09491842      -0.40497086
Si       6.22003173       3.55951510       2.76143288      -1.09876762       1.86309643      -2.90714609
C        7.78768198       4.30303428       3.21956062       1.24019604       3.78388764       1.50789210
Si       6.40912507       5.27959509       0.01898920      -1.39413827      -0.58202576       0.31540571
C        7.85263885       6.25539355       0.81261435      -1.42888261       0.89795906      -1.41861234
Si       7.83187134       6.34362257       2.68100514      -2.12916678      -1.24211973      -0.60481088
C        9.43295088       7.11340013       3.16121863      -2.71972347       2.30072930       1.54394076
Si       6.30529659       0.02065256       0.00424761      -1.09548072      -1.51656623       2.67540176
C        7.64689163       0.99212318       0.73283338       2.46118567      -1.46632019      -1.10896076
Si       7.35076882       0.68573048       2.49028116       2.50969673       2.53311948       2.52286592
C        9.14382745       1.84616641       3.38756568      -0.01619024      -0.93576277      -5.52718814
Si       7.97739430       2.71414936       0.16394964      -2.45237167       0.38076881       1.14548508
C        9.46410154       3.63825316       0.87808130      -1.18018597       0.29208683      -0.80796171
Si       9.37405125       3.52226933       2.69417969      -0.01796970       1.44858755       1.55363614
C       11.15311720       4.61674898       3.43538744      -3.11802360      -1.69822547      -2.53139144
Si       9.33466023       5.45373313       0.17058992       2.60937609      -0.67139705      -0.71317105
C       11.19060968       6.27450828       0.83188167      -4.08681141       0.62822720      -1.09707326
Si      10.83909378       6.25500803       2.62954262       4.04014280      -0.49885443       0.37753539
C       12.42769020       7.20130722       3.36225945      -1.04134023      -0.79775880      -1.78059821
36
Lattice="9.289998233647655 -0.0015049812188321391 0.01528206237641277 4.643693870766754 8.046121966275368 0.01528206237641277 3.10469264438299 1.7924976616817432 5.067689814146376" Properties=species:S:1:pos:R:3:forces:R:3 energy=-15960.347077485863 free_energy=-15960.347077485863 pbc="T T T"
Si       0.04809073      -0.02027824       0.06967829      -1.01713561      -0.25885224       0.25620066
C        1.63719797       1.02358694       0.72491001      -1.79890344      -1.97625196      -1.22848852
Si       1.55925882       0.84073145       2.57080491      -0.48599018       1.13339832       1.56543699
C        3.14461787       1.73750880       3.28673058      -1.49345407       1.35834362      -0.96867931
Si       1.46389562       2.72451693      -0.13029022       2.05246255      -1.38655428       1.32919451
C        3.09007736       3.52235059       0.80241203      -0.32489951      -1.41141762      -4.19913982
Si       2.92661526       3.54474142       2.53386999      -0.68929193      -0.49695362       2.63351772
C        4.54133445       4.28243175       3.04298467      -0.94479557       3.29663659       2.24706086
Si       3.24479421       5.09911950       0.01384193      -2.02871584       4.18209984      -0.15112482
C        4.68718412       6.13726850       0.57748902       0.69362835       1.35350301       1.13146640
Si       4.69881617       6.18008590       2.48771292       1.20681386      -1.30325568      -0.82147363
C        6.22291914       7.04592884       3.22417967      -0.11590944       0.83435049      -1.38565645
Si       3.10610051       0.04473096       0.02294155      -0.64920098      -0.56407972      -0.18116893
C        4.55511794       0.84568251       0.70908480       2.31589289       2.17110919      -0.08213620
Si       4.75769899       1.12749861       2.57099137      -2.91340852      -3.38510517      -0.84221266
C        6.22520287       1.85587908       3.17501460       1.08756070       0.68703605       1.05700005
Si       4.68418442       2.71131028       0.03944503      -0.66390923      -1.46535988       3.90341205
C        6.22705217       3.57863854       0.60747763      -0.20819559       0.89507403       1.69407905
Si       6.08063889       3.63835713       2.58010091       3.88016671      -0.79115544      -0.89220854
C        7.66281583       4.49442342       3.43359854      -0.43746446       0.54627895      -7.82594566
Si       6.28229163       5.40386464      -0.00320067      -0.71081361      -1.15079749      -1.51507859
C        7.76958570       6.22725248       0.61671835       1.34034307       1.36607750       0.62997812
Si       7.82059484       6.46350957       2.50190297       0.70374976      -2.47322306       0.89345166
C        9.41661560       7.34959138       3.07769809       0.05354528      -1.30284919       1.71837494
Si       6.11910301       0.00927107       0.05439976      -1.11540292      -1.57653104      -1.51409694
C        7.58334000       0.76285423       0.69672802       3.42508582       2.53132691      -0.96191654
Si       7.66825041       0.87162566       2.51008235       1.46315259      -0.91731433       1.29876422
C        9.16066366       1.83521856       3.19368022       1.28796919      -1.80027126      -0.38946068
Si       7.69245654       2.67590799      -0.01000657      -0.14186859      -0.95768965      -1.19129674
C        9.29419923       3.56177289       0.50770132      -1.89172463       0.18121649       1.86222739
Si       9.06539621       3.49026914       2.43541984       1.74650281       2.29809160       1.77762730
C       10.64273076       4.54219000       3.11909330       1.08017854      -1.70853482       0.48904593
Si       9.44244457       5.39896245       0.12991705      -2.73763608      -1.46986934      -2.92342168
C       10.90505917       6.21604144       0.52798009       2.44481289       0.84628658       2.50422697
Si      10.97465780       6.32306561       2.60046686      -2.21306856      -0.99245456      -2.10186655
C       12.56363687       6.97195519       3.12508164      -2.20007678       3.70769094       2.18430794
36
Lattice="9.289998233647655 -0.0015049812188321391 0.01528206237641277 4.643693870766754 8.046121966275368 0.01528206237641277 3.10469264438299 1.7924976616817432 5.067689814146376" Properties=species:S:1:pos:R:3:forces:R:3 energy=-15965.887747765839 free_energy=-15965.887747765839 pbc="T T T"
Si       0.06149900       0.04317996       0.12716140      -0.37387619      -0.32459817      -2.23067059
C        1.56382895       0.94713422       0.66294250       0.91697829       0.21747110       0.45954535
Si       1.57814243       0.89439406       2.56210904      -0.71728276       0.50795434       0.71567325
C        3.14458253       1.78016828       3.23360454      -0.88741574      -0.50717761      -0.06878549
Si       1.59184573       2.69656188      -0.02874304      -0.45644717       0.62916720       1.30878715
C        3.14184684       3.65783187       0.69364084      -0.03896250      -1.35412624      -1.46738617
Si       3.11599761       3.54010222       2.52715535      -1.27953854      -0.66315204       0.56963408
C        4.60091256       4.35396725       3.17947811       0.68906182       2.26146418       0.31677508
Si       3.12614119       5.41476869       0.03399577      -0.28669266      -0.20248723      -0.20171281
C        4.62328437       6.33604510       0.71469915       0.94972668      -1.37045609      -0.35263811
Si       4.66162962       6.19320924       2.59041502      -0.54903517       0.55441135      -0.03070977
C        6.18065561       7.10655082       3.22115775       0.44207805       0.71999553      -0.72645851
Si       3.12138287       0.13535954      -0.03670530      -0.06774420      -2.10968707       0.68115953
C        4.69150335       0.93093169       0.67941109      -0.40407792       0.18333740      -0.80891919
Si       4.60010553       0.82863110       2.54411836       0.36954826       0.19776848       0.42089859
C        6.08739931       1.76071665       3.16528739       1.92098353       0.05769658      -0.09557356
Si       4.70489769       2.70832891      -0.00661371      -0.86171679       0.38161084       0.45854776
C        6.22619160       3.59975244       0.63339694      -0.48746856       0.01729787       0.76076500
Si       6.11640655       3.54624939       2.57185545       1.80995327      -0.27401815      -0.93325748
C        7.70244054       4.51532602       3.18662244      -0.15618012      -1.07270178      -0.60407863
Si       6.18087118       5.37290001       0.02482126       0.33258891       0.70999445      -0.54554592
C        7.75827353       6.31657283       0.65122766      -0.39739639      -0.17834946      -1.87196185
Si       7.68912948       6.24728549       2.44677547       0.79919785       0.24428411       2.21331950
C        9.30630303       7.07088187       3.14712720      -1.06850985       0.68111557       0.60422338
Si       6.24371518       0.03478114       0.06349179      -0.75881096      -0.48408113      -1.51466284
C        7.80159229       0.90943548       0.59647004      -0.84917521       0.38612930       1.54425084
Si       7.73896492       0.84541236       2.53478047      -0.32514325       1.20264919       0.22922825
C        9.22749654       1.86238235       3.18068702       0.82946488      -1.51505776       0.27637919
Si       7.72157022       2.70038943       0.00589627       1.15413916      -0.09269135      -0.32506174
C        9.31683163       3.61097139       0.61787622      -0.46116772      -0.63301074      -0.14422577
Si       9.26333315       3.59342317       2.52372961      -0.52566873      -0.11641235      -0.24947337
C       10.81488328       4.40089440       3.14868700       0.53601150       0.30747026       0.77840688
Si       9.28381150       5.34772176      -0.05953658      -0.03174747       0.97491655       1.44501834
C       10.83834418       6.26368856       0.55260827      -0.15622460      -0.02658469       1.71206186
Si      10.79891241       6.14654150       2.55066633       0.90008305       1.39922879      -1.17751665
C       12.38934003       7.12396027       3.18996431      -0.50953274      -0.70937148      -1.14603530
36
Lattice="9.289998233647655 -0.0015049812188321391 0.01528206237641277 4.643693870766754 8.046121966275368 0.01528206237641277 3.10469264438299 1.7924976616817432 5.067689814146376" Properties=species:S:1:pos:R:3:forces:R:3 energy=-15965.358309203546 free_energy=-15965.358309203546 pbc="T T T"
Si      -0.03584142       0.03417702      -0.13863781       0.40701334      -1.40592317       0.52738262
C        1.47758132       0.73648984       0.59158179       1.87389377       2.10041053      -0.34294608
Si       1.46525821       0.82640414       2.47891568       0.91188982       0.34357472      -0.45420080
C        3.05233195       1.79328862       3.01957415      -1.11166839       0.13691510       1.37342854
Si       1.57866715       2.68054226      -0.07255526      -0.08736069      -1.00744204       0.97063901
C        3.11514848       3.61383933       0.61885752      -0.46898233      -0.44063155       0.15630482
Si       2.98559333       3.60385822       2.53530283       1.45642221      -0.09279188      -0.77718535
C        4.63928254       4.41247664       3.10178669      -0.43810029       1.11054250       0.69434441
Si       3.09231741       5.39732493       0.02843086       0.08140113      -0.38528752      -0.49633810
C        4.67472956       6.26349700       0.54913443      -1.17566366       0.70014250       1.36755923
Si       4.60256168       6.31142259       2.52646729       1.73116798      -1.12455887      -0.34130777
C        6.26463070       7.13603896       3.22009716      -1.30531205      -0.00501674      -0.72688917
Si       3.16854450      -0.10797214       0.02760455      -1.57960145       1.65427991       0.40883626
C        4.64161493       0.87581838       0.64096726       0.92761854       0.72357168      -0.12101488
Si       4.57899479       0.93804764       2.52890887       1.63581296      -1.38429146      -0.29543235
C        6.20952532       1.70410385       3.24298020      -1.48148790       1.69640435      -1.01786169
Si       4.70732726       2.72647772       0.04802913      -0.65496488      -0.73567643       0.57342748
C        6.24844560       3.63044630       0.73771873      -0.49609744      -1.02885881      -0.37260736
Si       6.21905647       3.53541937       2.59587888       0.32452284       0.60386651       0.62199408
C        7.86079986       4.48857668       3.25577483      -2.16939837      -0.20376918      -0.58630279
Si       6.18280125       5.35470908       0.02709095       1.32113231       0.60828058      -0.18495719
C        7.78324049       6.23667035       0.66089928      -0.32257857      -1.08945329       0.93689379
Si       7.80813129       6.25365052       2.61541582      -0.18210198       0.00478071      -1.14462325
C        9.39180418       7.12326463       3.17067347      -2.66896346       1.77167186       1.20730957
Si       6.26114883       0.03217512      -0.05263425      -1.50818495      -0.45769750       0.52211392
C        7.77554188       0.86182978       0.61767667      -0.84804778       0.88918775       0.95661364
Si       7.66154408       0.89000197       2.60222962       2.38889139      -0.55393698      -1.50435606
C        9.28043205       1.80154636       3.12578650      -0.46509328      -0.21630254       0.35122400
Si       7.72884003       2.69860797       0.10802420       0.97099305      -0.20242475      -1.11453105
C        9.34646142       3.56088825       0.67144623      -0.52970073       0.37317891      -0.71478236
Si       9.25674776       3.58794802       2.51657114       1.82704622      -0.21334191       0.77833978
C       10.81598713       4.51560436       3.25698138      -0.20436568      -0.39523821      -0.44663481
Si       9.32567822       5.37264476       0.03067520      -0.48872557      -0.70004429       0.99219462
C       10.81338665       6.28106612       0.58880356       1.36092013       0.41443021       1.72862336
Si      10.84257526       6.29347276       2.61443954       1.55333275      -0.94051314      -1.62028684
C       12.41856207       7.18516869       3.27942886      -0.58565925      -0.54803732      -1.90497121
36
Lattice="9.289998233647655 -0.0015049812188321391 0.01528206237641277 4.643693870766754 8.046121966275368 0.01528206237641277 3.10469264438299 1.7924976616817432 5.067689814146376" Properties=species:S:1:pos:R:3:forces:R:3 energy=-15956.34870953111 free_energy=-15956.34870953111 pbc="T T T"
Si       0.05119852      -0.22496413      -0.25307378      -1.59093230       3.91125109       1.91273440
C        1.61240715       0.78608517       0.38479085      -2.94454407      -0.58510620       3.09260156
Si       1.45552244       1.09033791       2.38154865       1.11556849      -2.13122623      -0.22129176
C        3.08857266       1.81197145       3.02223849      -1.58002183       1.45585708      -0.43848673
Si       1.50226953       2.49691133      -0.02999489       0.98534238       2.83485747       0.19838272
C        2.96814761       3.49311702       0.72852913       1.89498479       0.23097428      -4.73248946
Si       2.92704632       3.74793761       2.43611794       0.91851581      -0.14902911       4.76335479
C        4.55685377       4.62486041       3.24937918      -0.18473453      -0.40933248      -2.47827682
Si       2.97043028       5.28138614      -0.27642622       2.97479181      -1.52825601       2.93156591
C        4.57307181       6.12611381       0.26918917       0.81170395       0.10808789       3.50266809
Si       4.77743718       6.41968666       2.37815143      -3.45082256      -3.12116831      -1.42647940
C        6.15622382       7.27651087       3.02351093       1.88670095      -0.18282832      -1.58536741
Si       3.15120225       0.01468461       0.04003454       1.51452040      -1.44783241      -1.68813671
C        4.69127875       0.85452648       0.69439839       0.54149952      -0.72848763       0.20075893
Si       4.59760385       0.89144445       2.58219224       0.41311277      -0.64550836      -1.53311590
C        6.10330156       1.81507135       3.18941825       0.69570015      -0.21471951       0.43771617
Si       4.70387784       2.65087341       0.20414996      -0.89052343       0.91021963      -1.08497288
C        6.20326846       3.65449407       0.85610516      -0.75873871       0.78154028      -2.02200911
Si       5.94756904       3.57877342       2.61072146       2.35071051       1.11156606       1.67581007
C        7.79381628       4.48400358       3.33895322      -2.93886270      -0.35557868       0.28422980
Si       6.18232751       5.44446806      -0.18821102       0.31479816      -2.60514997       3.17197588
C        7.79195887       6.19480593       0.22252930       1.35384702      -0.20351001       4.10588334
Si       7.76485331       6.10740384       2.53146077      -0.75763674       1.81733979      -1.71626741
C        9.19461231       7.10509362       3.14644768       1.65939975       0.52292125      -2.95164211
Si       6.34756774      -0.07754187       0.20512710      -3.63735533      -0.41386919      -2.82647850
C        7.71210512       0.83135692       0.61776238       4.12725846       2.53397900       2.39932956
Si       7.68566401       0.90807859       2.74310467       0.09303588       0.11171598      -3.20210973
C        9.22064250       1.83562824       3.10796695       0.72500507      -0.16446550       2.10671231
Si       7.79346443       2.83397820       0.48521064       0.89290993      -2.25490607      -3.86240167
C        9.59197889       3.59889169       0.80412635      -4.04506518      -0.38571921       1.21753690
Si       9.28096065       3.64970074       2.81488264       1.86928687       0.29203027      -1.77425993
C       10.74671173       4.66644452       3.44902541       1.28513738      -1.99543368      -0.03254682
Si       9.49141981       5.19810923      -0.14149848      -0.86473784       1.96272128       2.97271667
C       11.08161414       6.17488990       0.64572909      -4.19517467       1.20855630       1.36242782
Si      10.90768480       6.31336223       2.69710546      -1.41928108      -1.05011746      -2.32155497
C       12.47004399       7.13059207       3.13136322       0.83460040       0.77862697      -0.43851733
36
Lattice="9.289998233647655 -0.0015049812188321391 0.01528206237641277 4.643693870766754 8.046121966275368 0.01528206237641277 3.10469264438299 1.7924976616817432 5.067689814146376" Properties=species:S:1:pos:R:3:forces:R:3 energy=-15965.557828784438 free_energy=-15965.557828784438 pbc="T T T"
Si      -0.06306987      -0.08969650      -0.14038422       0.34527627       1.35375215       1.05442123
C        1.44912199       0.92373438       0.58891843       0.38768610      -0.50398790      -0.81430951
Si       1.49037215       0.92729995       2.48562202      -1.59497819      -1.53062271      -0.21032807
C        3.01311532       1.75432380       2.97025924       1.71311447      -0.01215309       2.54079294
Si       1.54744220       2.70185044      -0.12277353      -0.26302282      -0.01448071       2.15618753
C        3.05302331       3.62372783       0.60946462       0.75288894      -0.95278964       0.48631568
Si       3.04866472       3.55943930       2.52058239       0.14920472      -0.17747142      -0.66269310
C        4.56649906       4.46378400       3.13147172       0.98017626       0.16420119      -0.84854889
Si       3.16989036       5.38854247       0.09162217      -0.80782904      -0.23197907      -2.31977423
C        4.70719894       6.23174151       0.63403899       0.39259228       0.21838976       0.04515217
Si       4.55914457       6.29674280       2.54590918       1.62795182      -0.33156921      -0.13559047
C        6.12489639       7.15082472       3.20975975       0.96283802       0.42592355      -0.00714715
Si       3.07728708       0.04276092      -0.00187988      -0.77425069      -0.46131016       0.70271798
C        4.60808740       0.91673820       0.62706042       0.62870749      -0.60895678       0.75793781
Si       4.67563605       0.85233292       2.55233156      -1.12906961      -0.13622579      -0.88853931
C        6.15146236       1.81992693       3.16332355       0.05120583      -0.47279168       0.50425632
Si       4.67573253       2.69243282       0.07704983      -0.44363228       0.55371509      -0.19257845
C        6.25703796       3.58794104       0.73345842       0.03672512      -0.72184595      -1.47472795
Si       6.21933580       3.58063149       2.54434994      -0.88683596       0.61612451       1.05214966
C        7.73189857       4.44702590       3.25608650       0.39769875       0.58150383      -0.39893674
Si       6.37260241       5.31251276       0.03824376      -2.22538800       0.56517013       0.03047091
C        7.77527244       6.25970411       0.73367500       0.96555542       0.88831280      -0.49646922
Si       7.75805957       6.23866078       2.64944890      -0.94653389       0.49838109      -0.56259645
C        9.34361212       7.08409261       3.21047056       0.30220721       0.50205571      -0.01984737
Si       6.14654344       0.00890935      -0.03846461       0.20344162       0.83605436       1.83241854
C        7.68603518       0.89466602       0.61808131       0.84238904      -0.67212570       0.41478939
Si       7.69002377       0.92927442       2.55450586      -0.20238901      -1.06295524      -0.74874612
C        9.15338226       1.80786217       3.24649141       1.85653523       0.07108817      -2.50377754
Si       7.81835799       2.65739209       0.07625153      -0.64119482       0.71985592      -0.00176635
C        9.34981215       3.64724756       0.64441724      -0.29855804      -0.84018869       0.53884126
Si       9.29812167       3.61147937       2.57230262      -0.44374567      -0.65772804       0.08099643
C       10.84254852       4.38847173       3.28510969       0.13468210       1.25869461      -1.48395281
Si       9.34502947       5.41823061       0.04315485      -0.29444968      -0.15068541       0.02353999
C       10.93123817       6.32517952       0.64607119      -0.98408305      -0.93158215       0.15349126
Si      10.91840940       6.19071063       2.49935056      -1.60980703       0.35363930       1.43033117
C       12.32252820       7.14944623       3.21255404       0.81489135       0.86458717      -0.03447952
36
Lattice="9.289998233647655 -0.0015049812188321391 0.01528206237641277 4.643693870766754 8.046121966275368 0.01528206237641277 3.10469264438299 1.7924976616817432 5.067689814146376" Properties=species:S:1:pos:R:3:forces:R:3 energy=-15960.68268038113 free_energy=-15960.68268038113 pbc="T T T"
Si       0.03291685       0.03430493       0.06678273       0.07265243       0.33133909       2.00854065
C        1.76860073       0.80105397       0.68873514      -5.95196344       3.43845324       1.48886388
Si       1.56587036       0.85609652       2.65751334       0.02631730       2.88169654      -1.65543228
C        3.08108239       1.85260047       3.35673761      -0.59764162       0.42940894      -3.32764821
Si       1.68512439       2.65379883      -0.17783199      -4.46231666      -1.97300954       3.74795981
C        3.05607478       3.39270404       0.58876376       2.36730801       3.40680373      -0.30322948
Si       2.97009434       3.61687974       2.40961465      -0.79008200      -1.18336848       2.08198807
C        4.51712766       4.46559591       3.15267752      -0.09282531      -0.29113604      -2.16674808
Si       3.05418420       5.28782062      -0.06281852       1.97160264       0.82926382       0.42988485
C        4.74433574       6.26785610       0.55514855      -1.37295315      -1.24153635       1.59777606
Si       4.71622657       6.17469085       2.55081050      -1.61051871       2.83946694      -1.68748057