36
Lattice="9.289998233647655 -0.0015049812188321391 0.01528206237641277 4.643693870766754 8.046121966275368 0.01528206237641277 3.10469264438299 1.7924976616817432 5.067689814146376" Properties=species:S:1:pos:R:3:forces:R:3 energy=-15965.887747765839 free_energy=-15965.887747765839 pbc="T T T"
Si       0.06149900       0.04317996       0.12716140      -0.37387619      -0.32459817      -2.23067059
C        1.56382895       0.94713422       0.66294250       0.91697829       0.21747110       0.45954535
Si       1.57814243       0.89439406       2.56210904      -0.71728276       0.50795434       0.71567325
C        3.14458253       1.78016828       3.23360454      -0.88741574      -0.50717761      -0.06878549
Si       1.59184573       2.69656188      -0.02874304      -0.45644717       0.62916720       1.30878715
C        3.14184684       3.65783187       0.69364084      -0.03896250      -1.35412624      -1.46738617
Si       3.11599761       3.54010222       2.52715535      -1.27953854      -0.66315204       0.56963408
C        4.60091256       4.35396725       3.17947811       0.68906182       2.26146418       0.31677508
Si       3.12614119       5.41476869       0.03399577      -0.28669266      -0.20248723      -0.20171281
C        4.62328437       6.33604510       0.71469915       0.94972668      -1.37045609      -0.35263811
Si       4.66162962       6.19320924       2.59041502      -0.54903517       0.55441135      -0.03070977
C        6.18065561       7.10655082       3.22115775       0.44207805       0.71999553      -0.72645851
Si       3.12138287       0.13535954      -0.03670530      -0.06774420      -2.10968707       0.68115953
C        4.69150335       0.93093169       0.67941109      -0.40407792       0.18333740      -0.80891919
Si       4.60010553       0.82863110       2.54411836       0.36954826       0.19776848       0.42089859
C        6.08739931       1.76071665       3.16528739       1.92098353       0.05769658      -0.09557356
Si       4.70489769       2.70832891      -0.00661371      -0.86171679       0.38161084       0.45854776
C        6.22619160       3.59975244       0.63339694      -0.48746856       0.01729787       0.76076500
Si       6.11640655       3.54624939       2.57185545       1.80995327      -0.27401815      -0.93325748
C        7.70244054       4.51532602       3.18662244      -0.15618012      -1.07270178      -0.60407863
Si       6.18087118       5.37290001       0.02482126       0.33258891       0.70999445      -0.54554592
C        7.75827353       6.31657283       0.65122766      -0.39739639      -0.17834946      -1.87196185
Si       7.68912948       6.24728549       2.44677547       0.79919785       0.24428411       2.21331950
C        9.30630303       7.07088187       3.14712720      -1.06850985       0.68111557       0.60422338
Si       6.24371518       0.03478114       0.06349179      -0.75881096      -0.48408113      -1.51466284
C        7.80159229       0.90943548       0.59647004      -0.84917521       0.38612930       1.54425084
Si       7.73896492       0.84541236       2.53478047      -0.32514325       1.20264919       0.22922825
C        9.22749654       1.86238235       3.18068702       0.82946488      -1.51505776       0.27637919
Si       7.72157022       2.70038943       0.00589627       1.15413916      -0.09269135      -0.32506174
C        9.31683163       3.61097139       0.61787622      -0.46116772      -0.63301074      -0.14422577
Si       9.26333315       3.59342317       2.52372961      -0.52566873      -0.11641235      -0.24947337
C       10.81488328       4.40089440       3.14868700       0.53601150       0.30747026       0.77840688
Si       9.28381150       5.34772176      -0.05953658      -0.03174747       0.97491655       1.44501834
C       10.83834418       6.26368856       0.55260827      -0.15622460      -0.02658469       1.71206186
Si      10.79891241       6.14654150       2.55066633       0.90008305       1.39922879      -1.17751665
C       12.38934003       7.12396027       3.18996431      -0.50953274      -0.70937148      -1.14603530
36
Lattice="9.289998233647655 -0.0015049812188321391 0.01528206237641277 4.643693870766754 8.046121966275368 0.01528206237641277 3.10469264438299 1.7924976616817432 5.067689814146376" Properties=species:S:1:pos:R:3:forces:R:3 energy=-15951.759740258662 free_energy=-15951.759740258662 pbc="T T T"
Si       0.09842090      -0.00453130       0.27029506      -0.11823064       0.50144791      -2.04978911
C        1.78358313       0.78239729       0.68934460      -1.80843529       1.34634043       0.58108988
Si       1.60642338       0.91038015       2.57732196      -1.43463160      -0.56132736       0.60424035
C        3.12083687       1.86800790       3.27324035      -0.62275744      -2.21689668       0.80112541
Si       2.00191492       2.52208072      -0.10876553      -4.06832132       0.10102250      -0.44071176
C        3.36157098       3.59228920       0.36871399      -2.17037591       0.64237727       3.86942644
Si       2.93848461       3.43631832       2.46027212       1.96397443       3.94252059      -0.90597962
C        4.63463523       4.38773917       3.07271654      -0.79801874      -0.26112407       1.17563898
Si       3.19462784       5.53386328       0.37098824      -0.47027328      -2.46553418      -3.83358706
C        4.81165510       6.26789478       0.95016233      -1.97374745       1.39351966      -1.40668756
Si       4.48735878       6.22724904       2.80936705       1.33102643       0.84193164      -0.88032772
C        6.17488699       7.17530773       3.21278496      -1.22661058       1.32052424       2.52012590
Si       3.22572762      -0.17320467       0.21710702      -1.37744461       2.61279566      -3.31980172
C        4.59109018       0.86823559       0.61021777       2.95143745       0.70799131       1.11954445
Si       4.65003240       1.07582513       2.51239272       0.08626925      -1.11271508       1.57113172
C        6.28834011       1.99465527       3.30983535      -2.92711045      -2.16782846      -0.72010840
Si       4.79825686       2.64568740      -0.19254959      -1.63960688      -1.46166983       2.59672138
C        6.10936808       3.56468348       0.42968420       5.27067329       0.81717577       2.65362426
Si       6.04691147       3.45672258       2.32292725       1.26893403       4.06651255       0.55299878
C        7.75488514       4.58986773       3.19359857      -0.88703522      -1.33578245      -5.37562572
Si       6.28277125       5.51029424       0.03490146      -2.60445243      -3.22230549       2.73550104
C        7.74722624       6.21534530       0.62567062       2.66168493      -2.01324191       3.48268007
Si       7.72518110       6.38869168       2.74680406      -1.27167457      -1.79049156      -1.62723911
C        9.21393466       7.15664749       3.39760063       0.01631185       3.05956725      -4.88872049
Si       5.98032021      -0.27616689      -0.06990364       1.66286071       4.36437485      -2.08375596
C        7.73016164       0.94331290       0.49472882      -1.16785239      -4.67753830       2.13129411
Si       7.53820817       1.19617700       2.35766102       2.22134443      -3.50994302       0.77623944
C        9.11663901       1.61594392       3.11214688       2.45507570       2.02251999       0.30752194
Si       7.94860595       2.50987379      -0.14032182      -1.33084156       4.78040711      -1.90750015
C        9.56492511       3.29919855       0.61419325      -1.87302500       1.67154950      -0.56757437
Si       9.23776666       3.77798941       2.47197332       1.26872037      -2.75190494       0.13049300
C       10.82058650       4.62533698       2.98097151       0.35585379      -1.78449292       1.16468711
Si       9.16305121       5.06142135      -0.01413840       0.74075770       1.71192327       1.36466468
C       10.68544444       6.19349119       0.71054291       0.83078437      -1.52311277      -2.46243497
Si      10.65021907       6.59683663       2.38312530      -0.89122072      -4.38732349       4.32374165
C       11.96223308       7.15836892       3.32903451       5.57595837       1.33873074      -1.99264712
36
Lattice="9.289998233647655 -0.0015049812188321391 0.01528206237641277 4.643693870766754 8.046121966275368 0.01528206237641277 3.10469264438299 1.7924976616817432 5.067689814146376" Properties=species:S:1:pos:R:3:forces:R:3 energy=-15965.767312901988 free_energy=-15965.767312901988 pbc="T T T"
Si      -0.06665438      -0.07623977       0.01762891       0.70025229       0.62018736       1.26241011
C        1.45480565       0.84100455       0.68951362       0.34237015       0.94442276      -0.78386328
Si       1.51983626       0.89463960       2.57040577       1.03465896      -0.46824494      -0.17622855
C        3.10967470       1.70718681       3.27224794      -0.03690459       0.57461045      -1.92910924
Si       1.48163680       2.67378384       0.00308274       1.43480463      -0.20761684      -0.51957958
C        3.10850703       3.52215081       0.66724514      -0.80346871       0.78157654      -0.39818906
Si       3.10502766       3.46004974       2.56920946       0.64921280       1.51485979      -0.39346286
C        4.69241537       4.53997015       3.09814535      -1.05433922      -1.71344357       1.67448801
Si       3.13453873       5.40076206       0.08924691       0.35692414      -1.20935231       0.02143400
C        4.77915414       6.23977558       0.67453175      -1.30591677      -0.09041413      -0.13325411
Si       4.72106345       6.30955605       2.54016151       0.18456330      -0.10158891       0.36942150
C        6.28927482       7.17979464       3.27107025      -1.03924067      -0.12930566      -0.89583199
Si       2.98665538       0.00701705       0.01183364       1.21491412       1.24385369       0.23405215
C        4.56399370       0.95931519       0.64471715       0.37205225      -0.40885528      -0.95787811
Si       4.65278468       0.87741142       2.50905957       0.10712707       0.53692784       0.54191656
C        6.22392532       1.79490484       3.20685219      -1.68287881       0.78034138      -0.20066946
Si       4.63515744       2.78051655      -0.11199691      -0.04486935      -1.29090359       1.74692627
C        6.18741911       3.58391413       0.59946227       0.51093168       0.31684604       0.41687018
Si       6.19671051       3.57815770       2.53815952      -0.04900651       0.51025239      -0.67742475
C        7.75699714       4.53492844       3.10074382       0.00752690      -1.27077648      -0.04073193
Si       6.33338184       5.40604978      -0.01865932      -1.91009979      -1.01377723       0.51588182
C        7.77520918       6.32417583       0.62497232       0.73328428      -0.75796944       0.23807875
Si       7.76001169       6.27851692       2.50658581       0.75334017       0.82411672       0.62160558
C        9.37415361       7.17497513       3.19175958      -0.63387335      -0.59944807      -0.65032121
Si       6.10663147      -0.00038667       0.01718234       0.82109671       0.27325942       0.11870500
C        7.71772978       0.80254416       0.70381770      -0.87739770       1.30896765      -0.27248346
Si       7.68512826       0.92469031       2.61625610       1.94029071      -0.55318004      -1.69359285
C        9.33585027       1.83484242       3.11821871      -1.89247385      -1.10647373       1.78254505
Si       7.72884269       2.67070450       0.05764614       0.04607597      -1.07163117      -0.95277601
C        9.28063416       3.59702072       0.62973543      -0.50979602       0.06552662      -0.31174240
Si       9.27566935       3.53545704       2.49206656       0.76660012       1.86815224       0.51669275
C       10.87311622       4.40812896       3.18179701      -0.47164548       0.22441823       0.40459574
Si       9.31485637       5.39236742      -0.06524918       0.06493218      -0.50039170       1.79106286
C       10.82589548       6.21996238       0.67426098       0.29322249       0.83595126      -0.03464047
Si      10.86592295       6.21367820       2.60175625       0.44132780       0.08548944      -0.90662780
C       12.44378588       7.19494897       3.17827826      -0.46359793      -0.81638670      -0.32827845
36
Lattice="9.289998233647655 -0.0015049812188321391 0.01528206237641277 4.643693870766754 8.046121966275368 0.01528206237641277 3.10469264438299 1.7924976616817432 5.067689814146376" Properties=species:S:1:pos:R:3:forces:R:3 energy=-15965.680444096479 free_energy=-15965.680444096479 pbc="T T T"
Si      -0.05715079       0.02979442      -0.04939057       0.59983605       0.54734338       1.67751163
C        1.62695998       0.85036802       0.58051680      -0.96734954      -0.36145597       0.19390772
Si       1.63503400       0.89840098       2.49001505      -0.58711398       0.01591744      -0.52667223
C        3.08790868       1.87965543       3.16604344       0.53599248      -1.38739940      -0.29233032
Si       1.59652031       2.62366939      -0.06495962      -1.02170755      -0.31919063       0.90481388
C        3.04959412       3.52734169       0.62749374       1.11473083       0.06666151      -0.26646168
Si       3.08497140       3.56111337       2.48299872       0.17816639       1.95923640       1.19299135
C        4.64469392       4.54461868       3.16987300       0.00098422      -0.99039588      -0.72138496
Si       3.06599900       5.27826931       0.04214415      -0.70701866       1.97627639      -0.38620309
C        4.54251858       6.30223307       0.67959643       0.28362405      -0.04340768      -0.52138758
Si       4.62487754       6.31873872       2.56371017       0.13838474       0.28842867      -0.49897091
C        6.16479840       7.23557837       3.18203313       0.96741356      -2.05848998       0.43708085
Si       3.15939832      -0.13614006      -0.02499473      -0.71227348       1.95105464       0.98754555
C        4.62534941       0.85765447       0.60252673       1.17542635       0.31398800       0.68963183
Si       4.64835239       0.95076911       2.55216535       0.11022062      -0.72948059      -0.58030570
C        6.21091037       1.86496323       3.22306310      -0.06122439      -1.51293043      -1.25763968
Si       4.67121614       2.69606720       0.01395516      -0.74430454      -1.16561425       0.01933855
C        6.08301832       3.69045620       0.70537938       1.47668456      -1.53039285      -0.33956174
Si       6.21025141       3.57608140       2.56840239      -0.28298333       1.47135004       0.25583222
C        7.80994110       4.42574213       3.19232522      -0.48528595       0.62906564      -0.23965355
Si       6.07926074       5.42963869       0.05974621       0.71109849       0.02058168      -0.34299879
C        7.71313688       6.19030074       0.61846400       0.42476553      -0.63460482       0.78368870
Si       7.77755664       6.22715002       2.57648254      -1.08535238       0.49080045      -0.69740993
C        9.22987866       7.18834485       3.24078447       0.83264250       0.25351746      -0.43669056
Si       6.26665961      -0.05036908      -0.02360678      -1.57634823       0.19443171       1.24967852
C        7.66689795       0.97864173       0.69831668       1.12421691      -0.91497822      -0.75586473
Si       7.74931017       0.95816196       2.56375157       0.59695179       0.13293966       0.05822829
C        9.42899930       1.73955276       3.19011154      -1.61191739       1.24303788      -0.75102823
Si       7.69334312       2.73340255       0.07398468       0.12424445       0.21137528      -0.44022274
C        9.34688753       3.51925385       0.68386932      -0.63180052      -0.45761420      -0.88488732
Si       9.37797155       3.59420843       2.53016842      -0.27406828      -0.66028732       1.23924627
C       10.85736033       4.53686413       3.23311717       0.23725986      -0.59781979      -0.26819357
Si       9.28151659       5.22128423      -0.02450513      -0.36994549       2.26248619       0.39422750
C       10.74257234       6.19991912       0.72640700       1.16826274       0.12091410      -1.63428367
Si      10.82477001       6.28527567       2.56395392      -0.49477435       0.42587187       0.49507286
C       12.37032409       7.23487819       3.12519264      -0.18743831      -1.21121687       1.26335499
36
Lattice="9.289998233647655 -0.0015049812188321391 0.01528206237641277 4.643693870766754 8.046121966275368 0.01528206237641277 3.10469264438299 1.7924976616817432 5.067689814146376" Properties=species:S:1:pos:R:3:forces:R:3 energy=-15965.619013445003 free_energy=-15965.619013445003 pbc="T T T"
Si      -0.06085176       0.03196726      -0.11376737       0.38992219      -0.85815890       1.83933403
C        1.45951219       0.88334236       0.59410653       1.26481743       0.42069675       0.09271424
Si       1.47029305       0.92126885       2.45816492       0.17256987      -1.10095717       0.85984812
C        3.02183779       1.79158552       3.11308102       0.23410923      -0.93759648      -0.82766536
Si       1.54614354       2.70784941       0.00647296      -0.29181301      -0.87736581      -0.46632098
C        3.14132112       3.57119072       0.57674161      -1.11095156      -0.35519302       1.13246733
Si       3.06225792       3.51252567       2.47442800      -0.45220125       1.18203974       0.69592075
C        4.54289335       4.36002376       3.19600290       1.99861516       1.66555986      -0.72822255
Si       3.14899290       5.34548745       0.09807829      -0.12216571       1.34544260      -1.28234927
C        4.74292943       6.21324515       0.67569674      -0.65232127       0.91365539      -1.37165860
Si       4.71960902       6.20646245       2.50210182      -1.57168400       0.33491807       1.65140593
C        6.13488108       7.21360290       3.25796733       0.87798956      -1.02817053      -0.58283926
Si       3.10929870       0.01407465       0.01003861      -0.76209040      -0.56456720       1.19251956
C        4.68468098       0.87777405       0.61384582      -0.90243664       1.21783669       0.13230254
Si       4.62388600       0.88635889       2.48490588      -0.35863418       0.12511399       0.75037723
C        6.09366425       1.79091818       3.24785846       1.59056772      -0.22669057      -1.56135922
Si       4.67157098       2.74158300       0.00746907       0.46106410      -1.62552829       0.47749011
C        6.21371466       3.57904936       0.64504017       0.57082347       0.32638612       0.46322923
Si       6.22614509       3.54236968       2.55250740      -1.53511622       0.44787049       0.47888725
C        7.71313676       4.49479315       3.24152207       0.21011312      -1.00747083      -0.82692308
Si       6.33355458       5.38356126       0.03257856      -1.17454446       0.02114012      -0.61712261
C        7.82207469       6.23927720       0.74851686      -0.20147447       0.72837887      -0.70427324
Si       7.67553018       6.24253846       2.67736552       1.24547117       1.66699916      -1.41811303
C        9.30713583       7.20157469       3.15978722      -0.18926096      -1.29546653       0.93722187
Si       6.20537638       0.01390334       0.03059679       0.47639276       0.03688427      -0.50970089
C        7.73302282       0.97330444       0.59995181       0.01741177      -1.35650631       1.19686446
Si       7.71701609       0.90516594       2.61034608      -1.39946379      -0.94036478      -1.59739194
C        9.21870905       1.67880110       3.20724069       1.05864581       2.65537621      -0.02042253
Si       7.78198166       2.71565119       0.04884602      -0.19728049       0.28950853      -0.93387403
C        9.33369635       3.62982326       0.68922655      -0.29184798      -0.41104638      -0.39865546
Si       9.25332593       3.57116257       2.56277421       0.40376450      -0.02769875       0.68654574
C       10.81016480       4.46103596       3.21005712       0.32495556      -0.20246126      -0.66299032
Si       9.35652959       5.38245986      -0.02852784      -0.46113995       0.24616744       0.78143975
C       10.89348647       6.30426475       0.65699739      -0.04462047      -1.04299474      -0.11755906
Si      10.84669931       6.22645919       2.50830455      -0.80744492       0.49036465       0.90904978
C       12.34073172       7.13954311       3.14445275       1.22925805      -0.25610193       0.34982301
36
Lattice="9.289998233647655 -0.0015049812188321391 0.01528206237641277 4.643693870766754 8.046121966275368 0.01528206237641277 3.10469264438299 1.7924976616817432 5.067689814146376" Properties=species:S:1:pos:R:3:forces:R:3 energy=-15965.675190394595 free_energy=-15965.675190394595 pbc="T T T"
Si       0.03616841      -0.05587706      -0.07339991      -0.82100698       1.54606501       1.00869159
C        1.54505148       0.96068246       0.56017777       0.18774350      -1.70841989      -0.10552064
Si       1.50900863       0.91378113       2.40831313       0.73773049      -0.87681997       1.49043071
C        3.04787529       1.69311089       3.17124933       0.69821495       1.33352605      -1.45814305
Si       1.50363760       2.68549374       0.00419635       1.03498961       1.37257468      -1.46516499
C        3.08236269       3.57719446       0.62237048       0.47685093       0.08333485      -0.31259087
Si       3.08728364       3.55416989       2.47899739      -0.44464298       0.13887839       1.27623082
C        4.60905265       4.50013853       3.12208677      -0.04519382      -0.65287585       0.82082468
Si       3.12747453       5.39973723      -0.05094178       0.11221168      -0.94214964       0.51918800
C        4.59827144       6.32641457       0.70055802       1.17780950      -1.47977169      -1.54960825
Si       4.61160525       6.26932240       2.50997561      -0.36085433       0.42499487       1.62911884
C        6.19489519       7.17123225       3.12516224      -1.27803316       0.19303971       0.00321979
Si       3.15257440       0.05395862      -0.03226076      -0.51506575      -0.81319494       0.65065699
C        4.69191072       0.89215924       0.72385387      -0.18882310      -0.52258777      -1.10917956
Si       4.62807910       0.78246233       2.59949173      -0.20787909       1.67804770      -0.37597936
C        6.18175004       1.78181431       3.13782131       0.35448751      -0.51281552       0.83747129
Si       4.72483778       2.70273496       0.11393750      -1.10977451      -0.19362926      -1.13435272
C        6.23832273       3.59182562       0.69930798       0.35669763      -0.00212450       0.33879709
Si       6.18103740       3.57408314       2.61215728       0.25283251       0.59705283      -0.63792643
C        7.71378780       4.51354254       3.25644327       0.61881388      -1.40146720      -0.24827446
Si       6.18946107       5.36289935       0.06916155      -0.43089786      -0.08547967       0.16323291
C        7.75172924       6.21429452       0.70370508       0.07958284       1.42953439      -1.47630532
Si       7.66879002       6.23845975       2.52066804       0.27468921      -0.24419566       1.28623061
C        9.11544506       7.12809282       3.26841658       2.56146101      -0.42948453      -0.75865335
Si       6.18560415      -0.05063174      -0.00309459       1.17400196       1.06072198       0.28869220
C        7.80464804       0.87320469       0.63653622      -0.46146417       0.34032150      -0.51014826
Si       7.78673520       0.90175518       2.51204036      -1.28943935      -0.66642968       0.03549048
C        9.29823514       1.75184984       3.13221859      -0.08473148       0.78853497       0.69833219
Si       7.82325449       2.71147079       0.03552068      -0.98786514      -0.36105822       0.08821018
C        9.35076425       3.69067899       0.61887429      -0.65699913      -2.34140466       1.46557585
Si       9.32974593       3.56850038       2.57233965      -1.71771006       0.49323400      -0.24919312
C       10.77380790       4.45057603       3.22905582       1.82250179       0.78616133      -0.54917118
Si       9.33922077       5.39938948       0.06755503      -0.48658127       0.68266054      -0.93767515
C       10.93339602       6.23452859       0.69148070      -1.66310317       0.76257711      -0.62665009
Si      10.78028276       6.28873167       2.54952178       0.22429635      -0.66551308       1.52154517
C       12.32903544       7.16967875       3.24542705       0.60515052       0.18816104      -0.61740260
36
Lattice="9.289998233647655 -0.0015049812188321391 0.01528206237641277 4.643693870766754 8.046121966275368 0.01528206237641277 3.10469264438299 1.7924976616817432 5.067689814146376" Properties=species:S:1:pos:R:3:forces:R:3 energy=-15965.671160796815 free_energy=-15965.671160796815 pbc="T T T"
Si      -0.12565825      -0.00626931      -0.10433981       2.23173966      -0.58728444       0.57210722
C        1.58942151       0.83825690       0.53618975      -2.31537507       1.24178806      -0.00540703
Si       1.52454207       0.87462772       2.39747091       0.75361348      -0.29890128       1.05343547
C        3.07428681       1.70669385       3.08814256       0.33332038       1.33464191      -0.04330638
Si       1.52937248       2.69599900      -0.09799605       0.82335028      -0.66499629       1.79153106
C        3.10163293       3.56632660       0.64747343      -0.67464024       0.48420840      -0.22050449
Si       3.06147365       3.61805825       2.56463437       0.92509063      -1.10371134      -0.61215292
C        4.70848453       4.51427996       3.14035881      -1.07768252      -0.60155484      -0.33145171
Si       3.01096573       5.38972472      -0.01176319       2.24504820      -0.46134795       0.06127273
C        4.68685810       6.26711617       0.60708172      -1.35407585       0.18137616       0.20983313
Si       4.61172373       6.29477788       2.50919458       0.31554378      -0.52198691      -0.62541493
C        6.11267147       7.15741918       3.14600060       1.25446180      -0.18564239       0.25485212
Si       3.07388452      -0.04718335       0.00951150       1.10189151       0.06977974       0.43798948
C        4.66390094       0.84422195       0.60393763      -0.61188296       0.73465339       0.90939379
Si       4.70566629       0.82634448       2.52668934      -1.55677340       0.46215656       0.05434618
C        6.18380852       1.72814164       3.23703788       0.75052172       0.58975656      -1.27002597
Si       4.66397578       2.64930930       0.08838153       0.40885297       1.08978187      -0.51718306
C        6.28968675       3.65131020       0.66713462      -1.89242243      -0.99644826       1.19037320
Si       6.25905535       3.56593243       2.63159104      -1.24484048      -0.46491484      -1.55108020
C        7.77776074       4.39485818       3.20199627      -0.09846991       1.16031546       1.25194315
Si       6.29610683       5.43861514       0.07278179      -1.45432059      -0.83831796      -0.43873253
C        7.82817442       6.26320709       0.73150141      -0.33684974      -0.11383045      -0.36080933
Si       7.75123442       6.18588868       2.62410453      -0.75185124       1.22598298      -0.10597059
C        9.25366373       7.13030919       3.24157705       1.09164618      -0.01441720      -0.19942453
Si       6.18559470       0.06410079      -0.01086929       0.78212161      -1.29712412       0.41011872
C        7.71370256       0.92581923       0.63581396       0.15284925      -0.13349682       0.81502042
Si       7.76881973       0.89697364       2.57643229       0.20594048       0.09593891      -0.25370489
C        9.39116627       1.76415567       3.22186157      -1.67960168       0.84796165      -1.67976212
Si       7.70646052       2.68805950       0.07656085       0.75106911       0.30883988      -0.94327013
C        9.27055295       3.54781243       0.60450052       0.87931908       0.57015704       0.94325059
Si       9.28752910       3.62168487       2.53669838       1.62538740      -1.40248304       0.05694428
C       10.85954597       4.52377721       3.26528290      -0.69741276      -0.53517409      -1.24184874
Si       9.31387849       5.35441488       0.01453952       0.36627267       0.36048589       0.36740139
C       10.89317792       6.33638719       0.72343653      -1.37727491      -0.79943053      -1.29820938
Si      10.82326003       6.27733148       2.55833370      -0.03227789      -0.01410302       1.03653998
C       12.36906280       7.15527440       3.18693433       0.15771173       0.27734181       0.28190681
36
Lattice="9.289998233647655 -0.0015049812188321391 0.01528206237641277 4.643693870766754 8.046121966275368 0.01528206237641277 3.10469264438299 1.7924976616817432 5.067689814146376" Properties=species:S:1:pos:R:3:forces:R:3 energy=-15965.736704176847 free_energy=-15965.736704176847 pbc="T T T"
Si      -0.00475731      -0.07550567      -0.07552952      -0.10405075       1.15340125       1.92900794
C        1.48673123       0.93971459       0.66914679      -0.48446294      -0.41406691      -0.59898039
Si       1.48018823       0.85236993       2.57700931       0.12634272       2.03764913      -1.58261041
C        3.00763450       1.79159863       3.16283532       0.91578735      -0.36366866      -0.48444469
Si       1.49485150       2.71313686       0.00721840       0.85387210       0.06913722       0.53212322
C        3.07771196       3.59705373       0.64281509       0.29601522       0.04457367      -0.10183651
Si       3.08114292       3.57981325       2.54637968      -0.34528399       0.33728117      -0.45530329
C        4.62700436       4.49017742       3.20113630      -0.05080243      -0.84572428      -0.38684690
Si       3.19383791       5.37030760      -0.04756858      -0.98221309      -0.13465870       1.03405270
C        4.76478726       6.21039111       0.62309173      -0.86407218       0.26627064      -0.50636617
Si       4.68720479       6.19615980       2.49603669      -0.31423689       1.41806521       0.52344524